file 69940328 1737460291                                        
version 3
run General-0-20250121-12:51:13-7099
attr configname General
attr datetime 20250121-12:51:13
attr datetimef 20250121-125113
attr experiment General
attr inifile cloudSystem.ini
attr iterationvars ""
attr iterationvarsd ""
attr iterationvarsf ""
attr measurement ""
attr network CloudSystem
attr processid 7099
attr repetition 0
attr replication #0
attr resultdir results
attr runnumber 0
attr seedset 0
config network CloudSystem
config seed-set 0
config num-rngs 4
config **.T 1s
config **.T_type 1
config **.N 10
config **.I 1000
config **.I_type 1
config **.R 6000
config **.fairSharing false
config **.S 10000
config **.S_type 1
config **.p 0.5

vector 0 CloudSystem.sink2 delayStat:vector ETV
attr "" ""
attr recordingmode vector
attr source delay
vector 1 CloudSystem.sink1 delayStat:vector ETV
attr "" ""
attr recordingmode vector
attr source delay
0	866 1407380 8 326800 1.762644476128 65047.598148769128 32768 0.00012803283 10674.593031817 57433243.584326 359542402834.3
1	1408246 1386845 26 328980 7.913252631516 65452.171279663819 32768 7.8549597e-05 355.88942858483 101192.09559176 2692295.6999405
1	2795091 1418618 328982 653842 65452.791164046833 130398.507190756994 32768 1.128065e-06 215.54641741512 102441.3404539 2654747.7608663
0	4213709 1433522 326812 658916 65049.653812976437 131223.218284403425 32768 6.7454763e-05 4771.6095279926 15769556.037848 38413493593.445
1	5647231 1436335 653854 981998 130401.581608180651 196735.835907800953 32768 2.4897543e-05 452.47557649313 102544.25324549 3107935.7112273
0	7083566 1449240 658918 994478 131223.250535082493 199269.380499006831 32768 3.8821226e-05 5102.2462877637 11890045.192433 31699201672.2
0	8532806 1477843 994480 1309930 199269.755305607606 261874.996203121339 32768 8.7055323e-05 3369.0281356665 6369729.6952232 12032981085.77
1	10010649 1467310 982006 1311904 196738.859923424888 262321.947200964017 32768 1.398736e-05 455.99165005018 102061.49874775 2827693.6894381
0	11477959 1477965 1309934 1637576 261876.81082154771 327515.215832948213 32768 2.7016233e-05 1388.1168816802 2364100.1243557 1395645818.4157
1	12955924 1468986 1311924 1639578 262324.060767690376 327914.736351107555 32768 2.8224358e-05 477.63821095794 99584.6906564 2541562.1504454
1	14424910 1469084 1639584 1958900 327917.184053150593 393758.991104106407 32768 4.1397415e-05 499.70414944353 100844.39575337 2835537.2674103
0	15893994 1484636 1637578 2123750 327515.412814394857 432982.557421374285 32768 9.4845237e-05 44714.273409123 195763360.94329 7389092550447.3
1	17378630 1469002 1958904 2276096 393759.610745342314 459282.697779724555 32768 1.258726e-05 613.81527201149 101030.52141715 2688994.6209412
0	18847632 1500019 2123754 2332506 432982.640247807031 468684.666741938328 32768 9836.1605028365 40012.824058335 835307780.70234 23776523010452
0	20347651 1497455 2332510 2619490 468684.913692981722 523532.769657149989 32768 0.000426425721 26003.392326491 381167445.64511 6472158765781.8
1	21845106 1468916 2276098 2624322 459282.74586053661 524493.590894669805 32768 2.0595162e-05 494.55149838689 100567.45992824 2594483.0262106
0	23314022 1478426 2619508 2946062 523538.306582015731 588697.821243867742 32768 1.6698294e-05 1801.6418871352 3677926.1052379 3292692626.2603
1	24792448 1469023 2624336 2953886 524497.59459953533 590254.232918795112 32768 9.6067916e-05 653.0241672759 103002.04341938 3044121.4846356
0	26261471 1480503 2946066 3272040 588697.952171764326 653631.765982826533 32768 1.0274768e-05 1947.6152548727 5114164.12066 4797022447.9556
1	27741974 1469135 2953888 3283860 590255.021229911785 655978.695549048611 32768 4.0663204e-05 379.81703351068 104882.70128764 3001862.5870292
0	29211109 1476424 3272050 3599274 653632.681769477533 719048.497063079945 32768 6.1180022e-05 741.05726970063 980637.01472643 251647465.76599
1	30687533 1469149 3283874 3612658 655981.836824146478 721697.124575275318 32768 2.013648e-05 404.02665932586 101740.82938406 2722119.6065624
0	32156682 1484966 3599276 3927204 719048.564629725584 784887.07525650345 32768 2.9825653e-05 4438.8411920827 25113060.822408 64362096792.596
1	33641648 1468995 3612662 3939648 721698.605847380626 787302.187267857411 32768 8.602726e-06 405.53056936675 98659.234147942 2404503.279125
0	35110643 1485008 3927208 4254362 784888.119568103976 850394.700808911743 32768 0.000157261275 7110.0525228542 35540993.224756 142623413503.95
1	36595651 1469038 3939658 4268520 787304.295299139162 853277.844844349195 32768 4.059407e-06 268.97732462178 102928.56987595 2547064.0528037
0	38064689 1480617 4254364 4580218 850394.705218094599 915763.26168793652 32768 5.4627732e-05 6557.5381509167 15767881.510292 64062622787.676
1	39545306 1469301 4268522 4599660 853277.941886215191 919513.302625790973 32768 6.0717905e-05 354.52262526479 103773.60752202 2884743.0957578
1	41014607 1469060 4599664 4924164 919514.234523928968 985694.490576245521 32768 2.355215e-05 375.45294539196 101285.04047457 2667261.427274
0	42483667 1479108 4580220 4925156 915763.27282266068 985819.1435097072 32768 0.000145540639 6514.7096227532 9159544.8867974 40716190993.846
0	43962775 1509594 4925158 5234552 985819.195595262543 1047017.192302083989 32768 0.000367019138 4821.5165073439 27665264.025728 76899654678.008
1	45472369 1494937 4924166 5257044 985695.135769901749 1051614.630575904278 32768 3.9827322e-05 352.30696537432 101741.17993004 2856827.8739861
0	46967306 1512065 5234600 5560618 1047030.939297498914 1111852.014349660226 32768 0.00049227434 1105.0321805288 2510738.6580473 1177437054.004
1	48479371 1501804 5257080 5584368 1051620.125139616004 1116803.624509998862 32768 0.000145352808 336.27761110612 101577.15132895 2705378.4073565
0	49981175 1513943 5560620 5887292 1111852.077148248366 1177326.922886781106 32768 0.000159772501 4536.8764358008 12081064.286203 27901906154.141
1	51495118 1501893 5584374 5914456 1116804.242718322805 1182886.552208861369 32768 6.9237899e-05 292.31025002227 102509.35466386 2669080.1859937
0	52997011 1509727 5887298 6215944 1177328.384356733591 1243614.45924984821 32768 3.8630435e-05 959.67784187874 1204879.1248966 314351476.88086
1	54506738 1501844 5914472 6239646 1182889.028394423882 1248561.409211627659 32768 4.151034e-05 248.07053657793 102778.40622928 2470540.5051857
0	56008582 1513274 6215948 6545456 1243614.524943404434 1309967.102907052405 32768 7.6296302e-05 1964.3849028607 3987102.0700537 3325506897.3136
1	57521856 1501800 6239672 6565114 1248562.71969471913 1313915.186009451548 32768 3.3762726e-05 314.66622345157 101814.58638636 2547347.1806845
0	59023656 1516516 6545472 6874500 1309973.065515747437 1376141.023907839165 32768 0.000133888951 8559.2138679164 31190513.626224 153260175774.41
1	60540172 1501833 6565116 6891316 1313915.616459298137 1379556.200188539387 32768 3.3455771e-05 362.01625985035 101799.70894434 2462901.011484
0	62042005 1511302 6874512 7203110 1376144.113880437266 1442162.772007593636 32768 1.8455464e-05 2409.3855336202 4748332.7498107 5513464962.6596
1	63553307 1501670 6891322 7217866 1379556.820195877369 1445108.510892660383 32768 2.7264691e-05 437.98003742613 100995.01667647 2612865.9231371
0	65054977 1514895 7203112 7530468 1442162.778126141323 1507687.07068970193 32768 2.2831568e-05 3632.4267703638 11002582.576119 20003891535.636
1	66569872 1501791 7217888 7546158 1445111.831190489991 1510748.860326935006 32768 4.9553306e-05 360.67329848715 101333.11071903 2895545.6082691
0	68071663 968833 7530472 7740416 1507688.72626556832 1549693.170444092379 20858 0.000365902914 9224.3253467294 49968127.21245 263719661160.64
1	69040496 899831 7546164 7740402 1510749.797391918508 1549692.007080374406 19634 0.000237469249 243.14158151218 58344.255444617 1269431.2832999

